 Entering Gaussian System, Link 0=g16
 Input=paracetamol_DMSO_NMR.com
 Output=paracetamol_DMSO_NMR.log
 Initial command:
 /opt/g16/l1.exe "/tmp/Gau-111057.inp" -scrdir="/tmp/"
 Default is to use a total of   6 processors:
                                6 via shared-memory
                                1 via Linda
 Entering Link 1 = /opt/g16/l1.exe PID=    111059.
  
 Copyright (c) 1988,1990,1992,1993,1995,1998,2003,2009,2016,
            Gaussian, Inc.  All Rights Reserved.
  
 This is part of the Gaussian(R) 16 program.  It is based on
 the Gaussian(R) 09 system (copyright 2009, Gaussian, Inc.),
 the Gaussian(R) 03 system (copyright 2003, Gaussian, Inc.),
 the Gaussian(R) 98 system (copyright 1998, Gaussian, Inc.),
 the Gaussian(R) 94 system (copyright 1995, Gaussian, Inc.),
 the Gaussian 92(TM) system (copyright 1992, Gaussian, Inc.),
 the Gaussian 90(TM) system (copyright 1990, Gaussian, Inc.),
 the Gaussian 88(TM) system (copyright 1988, Gaussian, Inc.),
 the Gaussian 86(TM) system (copyright 1986, Carnegie Mellon
 University), and the Gaussian 82(TM) system (copyright 1983,
 Carnegie Mellon University). Gaussian is a federally registered
 trademark of Gaussian, Inc.
  
 This software contains proprietary and confidential information,
 including trade secrets, belonging to Gaussian, Inc.
  
 This software is provided under written license and may be
 used, copied, transmitted, or stored only in accord with that
 written license.
  
 The following legend is applicable only to US Government
 contracts under FAR:
  
                    RESTRICTED RIGHTS LEGEND
  
 Use, reproduction and disclosure by the US Government is
 subject to restrictions as set forth in subparagraphs (a)
 and (c) of the Commercial Computer Software - Restricted
 Rights clause in FAR 52.227-19.
  
 Gaussian, Inc.
 340 Quinnipiac St., Bldg. 40, Wallingford CT 06492
  
  
 ---------------------------------------------------------------
 Warning -- This program may not be used in any manner that
 competes with the business of Gaussian, Inc. or will provide
 assistance to any competitor of Gaussian, Inc.  The licensee
 of this program is prohibited from giving any competitor of
 Gaussian, Inc. access to this program.  By using this program,
 the user acknowledges that Gaussian, Inc. is engaged in the
 business of creating and licensing software in the field of
 computational chemistry and represents and warrants to the
 licensee that it is not a competitor of Gaussian, Inc. and that
 it will not use this program in any manner prohibited above.
 ---------------------------------------------------------------
  

 Cite this work as:
 Gaussian 16, Revision A.03,
 M. J. Frisch, G. W. Trucks, H. B. Schlegel, G. E. Scuseria, 
 M. A. Robb, J. R. Cheeseman, G. Scalmani, V. Barone, 
 G. A. Petersson, H. Nakatsuji, X. Li, M. Caricato, A. V. Marenich, 
 J. Bloino, B. G. Janesko, R. Gomperts, B. Mennucci, H. P. Hratchian, 
 J. V. Ortiz, A. F. Izmaylov, J. L. Sonnenberg, D. Williams-Young, 
 F. Ding, F. Lipparini, F. Egidi, J. Goings, B. Peng, A. Petrone, 
 T. Henderson, D. Ranasinghe, V. G. Zakrzewski, J. Gao, N. Rega, 
 G. Zheng, W. Liang, M. Hada, M. Ehara, K. Toyota, R. Fukuda, 
 J. Hasegawa, M. Ishida, T. Nakajima, Y. Honda, O. Kitao, H. Nakai, 
 T. Vreven, K. Throssell, J. A. Montgomery, Jr., J. E. Peralta, 
 F. Ogliaro, M. J. Bearpark, J. J. Heyd, E. N. Brothers, K. N. Kudin, 
 V. N. Staroverov, T. A. Keith, R. Kobayashi, J. Normand, 
 K. Raghavachari, A. P. Rendell, J. C. Burant, S. S. Iyengar, 
 J. Tomasi, M. Cossi, J. M. Millam, M. Klene, C. Adamo, R. Cammi, 
 J. W. Ochterski, R. L. Martin, K. Morokuma, O. Farkas, 
 J. B. Foresman, and D. J. Fox, Gaussian, Inc., Wallingford CT, 2016.
 
 ******************************************
 Gaussian 16:  ES64L-G16RevA.03 25-Dec-2016
                 6-Mar-2021 
 ******************************************
 %NProcShared=4
 Will use up to    4 processors via shared memory.
 %mem=3000mb
 ----------------------------------------------------
 # B3LYP/6-31G(d,p) scrf=(pcm, solvent=dmso) nmr=giao
 ----------------------------------------------------
 1/38=1,172=1/1;
 2/12=2,17=6,18=5,40=1/2;
 3/5=1,6=6,7=101,11=2,25=1,30=1,70=2201,72=21,74=-5/1,2,3,8;
 4//1;
 5/5=2,38=5,53=21/2;
 8/6=1,10=90,11=11/1;
 10/13=100,45=16/2;
 6/7=2,8=2,9=2,10=2,28=1/1;
 99/9=1/99;
 --------------------
 paracetamol_DMSO_NMR
 --------------------
 Symbolic Z-matrix:
 Charge =  0 Multiplicity = 1
 C                     6.44581  -7.66687   0.36199 
 C                     6.24308  -8.99939   0.74638 
 C                     5.36825  -6.94187  -0.16171 
 C                     5.00161  -9.60528   0.57512 
 C                     4.11599  -7.53415  -0.30993 
 C                     3.93024  -8.87466   0.04851 
 N                     7.69785  -7.01581   0.54288 
 C                     8.95679  -7.39624   0.15104 
 O                     9.92368  -6.67892   0.41212 
 C                     9.11658  -8.70199  -0.60171 
 O                     2.73341  -9.51856  -0.08453 
 H                     7.05511  -9.56278   1.1926 
 H                     5.5127   -5.907    -0.45702 
 H                     4.84494  -10.63876   0.86577 
 H                     3.28781  -6.9582   -0.71426 
 H                     7.67916  -6.09057   0.95611 
 H                     9.29342  -9.52151   0.10242 
 H                     9.99811  -8.61186  -1.23791 
 H                     8.24423  -8.95693  -1.20571 
 H                     2.07815  -8.91035  -0.45466 
 
                          Input orientation:                          
 ---------------------------------------------------------------------
 Center     Atomic      Atomic             Coordinates (Angstroms)
 Number     Number       Type             X           Y           Z
 ---------------------------------------------------------------------
      1          6           0        6.445812   -7.666874    0.361988
      2          6           0        6.243082   -8.999394    0.746383
      3          6           0        5.368253   -6.941873   -0.161708
      4          6           0        5.001614   -9.605275    0.575122
      5          6           0        4.115985   -7.534145   -0.309932
      6          6           0        3.930238   -8.874661    0.048510
      7          7           0        7.697854   -7.015813    0.542882
      8          6           0        8.956795   -7.396236    0.151038
      9          8           0        9.923675   -6.678922    0.412123
     10          6           0        9.116584   -8.701991   -0.601710
     11          8           0        2.733405   -9.518563   -0.084527
     12          1           0        7.055105   -9.562777    1.192596
     13          1           0        5.512698   -5.906996   -0.457017
     14          1           0        4.844941  -10.638759    0.865768
     15          1           0        3.287807   -6.958202   -0.714263
     16          1           0        7.679158   -6.090567    0.956110
     17          1           0        9.293423   -9.521514    0.102418
     18          1           0        9.998106   -8.611859   -1.237914
     19          1           0        8.244228   -8.956934   -1.205711
     20          1           0        2.078149   -8.910348   -0.454657
 ---------------------------------------------------------------------
                    Distance matrix (angstroms):
                    1          2          3          4          5
     1  C    0.000000
     2  C    1.401595   0.000000
     3  C    1.400363   2.413161   0.000000
     4  C    2.426630   1.392000   2.787661   0.000000
     5  C    2.428413   2.790573   1.393173   2.420173   0.000000
     6  C    2.808047   2.419056   2.418212   1.399630   1.399988
     7  N    1.422748   2.468272   2.434945   3.738457   3.718299
     8  C    2.534321   3.207614   3.630687   4.550072   4.864664
     9  O    3.615812   4.363838   4.598945   5.728595   5.914561
    10  C    3.022119   3.187917   4.164325   4.374224   5.143441
    11  O    4.172540   3.643869   3.686151   2.363774   2.429043
    12  H    2.157683   1.084384   3.398345   2.144739   3.874450
    13  H    2.153751   3.397728   1.085837   3.873472   2.149431
    14  H    3.413017   2.157908   3.872535   1.084947   3.398864
    15  H    3.410796   3.877319   2.152635   3.406852   1.086772
    16  H    2.087790   3.250781   2.704537   4.434813   4.047590
    17  H    3.408219   3.160994   4.704388   4.318575   5.561073
    18  H    4.008925   4.264718   5.038116   5.407301   6.051609
    19  H    2.712238   2.795900   3.663556   3.755830   4.457481
    20  H    4.614067   4.335561   3.845191   3.176479   2.463261
                    6          7          8          9         10
     6  C    0.000000
     7  N    4.230207   0.000000
     8  C    5.240470   1.372296   0.000000
     9  O    6.393338   2.254966   1.231894   0.000000
    10  C    5.229798   2.483160   1.515638   2.402511   0.000000
    11  O    1.365547   5.594922   6.579540   7.746625   6.455946
    12  H    3.398122   2.705971   3.065154   4.141793   2.865342
    13  H    3.400996   2.646541   3.801233   4.561578   4.562995
    14  H    2.148635   4.622673   5.285086   6.455977   4.914417
    15  H    2.160406   4.586093   5.751352   6.736578   6.085073
    16  H    4.757028   1.013502   1.996314   2.383262   3.363411
    17  H    5.402322   3.003063   2.152322   2.928048   1.094845
    18  H    6.208299   3.318095   2.119258   2.542520   1.090853
    19  H    4.493367   2.669092   2.187304   3.259949   1.091246
    20  H    1.919553   6.013770   7.069312   8.202612   7.043054
                   11         12         13         14         15
    11  O    0.000000
    12  H    4.506672   0.000000
    13  H    4.572377   4.297089   0.000000
    14  H    2.572253   2.479794   4.958351   0.000000
    15  H    2.694323   4.961094   2.474136   4.297402   0.000000
    16  H    6.106927   3.535762   2.593101   5.359757   4.777751
    17  H    6.562682   2.490032   5.260379   4.649724   6.580650
    18  H    7.411363   3.933558   5.295750   5.923589   6.930866
    19  H    5.651695   2.744619   4.162201   4.321425   5.366802
    20  H    0.967617   5.282916   4.562483   3.519384   2.311178
                   16         17         18         19         20
    16  H    0.000000
    17  H    3.886649   0.000000
    18  H    4.067945   1.766505   0.000000
    19  H    3.634396   1.769396   1.787792   0.000000
    20  H    6.427498   7.262509   7.964189   6.211826   0.000000
 Stoichiometry    C8H9NO2
 Framework group  C1[X(C8H9NO2)]
 Deg. of freedom    54
 Full point group                 C1      NOp   1
 Largest Abelian subgroup         C1      NOp   1
 Largest concise Abelian subgroup C1      NOp   1
                         Standard orientation:                         
 ---------------------------------------------------------------------
 Center     Atomic      Atomic             Coordinates (Angstroms)
 Number     Number       Type             X           Y           Z
 ---------------------------------------------------------------------
      1          6           0        0.206688   -0.385951   -0.246413
      2          6           0       -0.322821    0.866713   -0.585414
      3          6           0       -0.659743   -1.385142    0.213948
      4          6           0       -1.681505    1.127061   -0.430948
      5          6           0       -2.024884   -1.139646    0.344533
      6          6           0       -2.540584    0.123895    0.032307
      7          7           0        1.587383   -0.686794   -0.411903
      8          6           0        2.698024   -0.015783    0.034658
      9          8           0        3.821858   -0.449771   -0.222659
     10          6           0        2.501541    1.251795    0.842000
     11          8           0       -3.865077    0.434101    0.151502
     12          1           0        0.326826    1.638485   -0.983176
     13          1           0       -0.261005   -2.361173    0.473588
     14          1           0       -2.091801    2.098412   -0.686378
     15          1           0       -2.686031   -1.925765    0.699461
     16          1           0        1.815402   -1.566324   -0.860924
     17          1           0        2.477181    2.120503    0.176088
     18          1           0        3.362977    1.360852    1.502299
     19          1           0        1.580356    1.247749    1.426995
     20          1           0       -4.350123   -0.337474    0.476593
 ---------------------------------------------------------------------
 Rotational constants (GHZ):           3.3271157           0.5487243           0.4975376
 Standard basis: 6-31G(d,p) (6D, 7F)
 There are   210 symmetry adapted cartesian basis functions of A   symmetry.
 There are   210 symmetry adapted basis functions of A   symmetry.
   210 basis functions,   371 primitive gaussians,   210 cartesian basis functions
    40 alpha electrons       40 beta electrons
       nuclear repulsion energy       571.8151550242 Hartrees.
 NAtoms=   20 NActive=   20 NUniq=   20 SFac= 1.00D+00 NAtFMM=   60 NAOKFM=F Big=F
 Integral buffers will be    131072 words long.
 Raffenetti 2 integral format.
 Two-electron integral symmetry is turned on.
 ------------------------------------------------------------------------------
 Polarizable Continuum Model (PCM)
 =================================
 Model                : PCM.
 Atomic radii         : UFF (Universal Force Field).
 Polarization charges : Total charges.
 Charge compensation  : None.
 Solution method      : On-the-fly selection.
 Cavity type          : Scaled VdW (van der Waals Surface) (Alpha=1.100).
 Cavity algorithm     : GePol (No added spheres)
                        Default sphere list used, NSphG=   20.
                        Lebedev-Laikov grids with approx.  5.0 points / Ang**2.
                        Smoothing algorithm: York/Karplus (Gamma=1.0000).
                        Polarization charges: spherical gaussians, with
                                              point-specific exponents (IZeta= 3).
                        Self-potential: point-specific (ISelfS= 7).
                        Self-field    : sphere-specific E.n sum rule (ISelfD= 2).
 Solvent              : DiMethylSulfoxide, Eps=  46.826000 Eps(inf)=   2.007889
 ------------------------------------------------------------------------------
 Spheres list:
 ISph  on   Nord     Re0    Alpha      Xe            Ye            Ze
    1   C      1    1.9255  1.100      0.206688     -0.385951     -0.246413
    2   C      2    1.9255  1.100     -0.322821      0.866713     -0.585414
    3   C      3    1.9255  1.100     -0.659743     -1.385142      0.213948
    4   C      4    1.9255  1.100     -1.681505      1.127061     -0.430948
    5   C      5    1.9255  1.100     -2.024884     -1.139646      0.344533
    6   C      6    1.9255  1.100     -2.540584      0.123895      0.032307
    7   N      7    1.8300  1.100      1.587383     -0.686794     -0.411903
    8   C      8    1.9255  1.100      2.698024     -0.015783      0.034658
    9   O      9    1.7500  1.100      3.821858     -0.449771     -0.222659
   10   C     10    1.9255  1.100      2.501541      1.251795      0.842000
   11   O     11    1.7500  1.100     -3.865077      0.434101      0.151502
   12   H     12    1.4430  1.100      0.326826      1.638485     -0.983176
   13   H     13    1.4430  1.100     -0.261005     -2.361173      0.473588
   14   H     14    1.4430  1.100     -2.091801      2.098412     -0.686378
   15   H     15    1.4430  1.100     -2.686031     -1.925765      0.699461
   16   H     16    1.4430  1.100      1.815402     -1.566324     -0.860924
   17   H     17    1.4430  1.100      2.477181      2.120503      0.176088
   18   H     18    1.4430  1.100      3.362977      1.360852      1.502299
   19   H     19    1.4430  1.100      1.580356      1.247749      1.426995
   20   H     20    1.4430  1.100     -4.350123     -0.337474      0.476593
 ------------------------------------------------------------------------------
 One-electron integrals computed using PRISM.
 NBasis=   210 RedAO= T EigKep=  4.16D-04  NBF=   210
 NBsUse=   210 1.00D-06 EigRej= -1.00D+00 NBFU=   210
 ExpMin= 1.61D-01 ExpMax= 5.48D+03 ExpMxC= 8.25D+02 IAcc=3 IRadAn=         5 AccDes= 0.00D+00
 Harris functional with IExCor=  402 and IRadAn=       5 diagonalized for initial guess.
 HarFok:  IExCor=  402 AccDes= 0.00D+00 IRadAn=         5 IDoV= 1 UseB2=F ITyADJ=14
 ICtDFT=  3500011 ScaDFX=  1.000000  1.000000  1.000000  1.000000
 FoFCou: FMM=F IPFlag=           0 FMFlag=      100000 FMFlg1=           0
         NFxFlg=           0 DoJE=T BraDBF=F KetDBF=T FulRan=T
         wScrn=  0.000000 ICntrl=       500 IOpCl=  0 I1Cent=   200000004 NGrid=           0
         NMat0=    1 NMatS0=      1 NMatT0=    0 NMatD0=    1 NMtDS0=    0 NMtDT0=    0
 Petite list used in FoFCou.
 Keep R1 ints in memory in canonical form, NReq=250131330.
 Requested convergence on RMS density matrix=1.00D-08 within 128 cycles.
 Requested convergence on MAX density matrix=1.00D-06.
 Requested convergence on             energy=1.00D-06.
 No special actions if energy rises.
 Inv3:  Mode=1 IEnd=     8376723.
 Iteration    1 A*A^-1 deviation from unit magnitude is 3.11D-15 for     25.
 Iteration    1 A*A^-1 deviation from orthogonality  is 3.03D-15 for   1254    550.
 Iteration    1 A^-1*A deviation from unit magnitude is 3.33D-15 for   1150.
 Iteration    1 A^-1*A deviation from orthogonality  is 2.05D-15 for   1350   1189.
 Error on total polarization charges =  0.00688
 SCF Done:  E(RB3LYP) =  -515.507806941     A.U. after   13 cycles
            NFock= 13  Conv=0.34D-08     -V/T= 2.0094
 DoSCS=F DFT=T ScalE2(SS,OS)=  1.000000  1.000000
 Range of M.O.s used for correlation:     1   210
 NBasis=   210 NAE=    40 NBE=    40 NFC=     0 NFV=     0
 NROrb=    210 NOA=    40 NOB=    40 NVA=   170 NVB=   170
 NEqPCM:  Using equilibrium solvation (IEInf=0, Eps=  46.8260, EpsInf=   2.0079)
          Differentiating once with respect to magnetic field using GIAOs.
          Electric field/nuclear overlap derivatives assumed to be zero.
 Keep R3 ints in memory in canonical form, NReq=253084243.
 FoFJK:  IHMeth= 1 ICntrl=    6127 DoSepK=F KAlg= 0 I1Cent=           0 FoldK=F
 IRaf=         1 NMat=       1 IRICut=       1 DoRegI=T DoRafI=F ISym2E= 0 IDoP0=0 IntGTp=1.
          There are     3 degrees of freedom in the 1st order CPHF.  IDoFFX=0 NUNeed=     3.
      3 vectors produced by pass  0 Test12= 2.27D-13 3.33D-08 XBig12= 1.67D+01 8.06D-01.
 AX will form     3 AO Fock derivatives at one time.
      3 vectors produced by pass  1 Test12= 2.27D-13 3.33D-08 XBig12= 2.93D-02 7.72D-02.
      3 vectors produced by pass  2 Test12= 2.27D-13 3.33D-08 XBig12= 1.50D-04 4.63D-03.
      3 vectors produced by pass  3 Test12= 2.27D-13 3.33D-08 XBig12= 3.14D-07 1.89D-04.
      3 vectors produced by pass  4 Test12= 2.27D-13 3.33D-08 XBig12= 7.59D-10 7.66D-06.
      3 vectors produced by pass  5 Test12= 2.27D-13 3.33D-08 XBig12= 2.34D-12 4.47D-07.
 InvSVY:  IOpt=1 It=  1 EMax= 2.66D-15
 Solved reduced A of dimension    18 with     3 vectors.
 Calculating GIAO nuclear magnetic shielding tensors.
 SCF GIAO Magnetic shielding tensor (ppm):
      1  C    Isotropic =    65.3335   Anisotropy =   128.0887
   XX=   -13.3731   YX=    18.9761   ZX=    22.2848
   XY=    21.9261   YY=    68.4169   ZY=    22.0198
   XZ=    21.0539   YZ=    19.5245   ZZ=   140.9567
   Eigenvalues:   -19.9297    65.2042   150.7259
      2  C    Isotropic =    69.5894   Anisotropy =   153.8326
   XX=    34.8090   YX=   -21.0678   ZX=    34.3101
   XY=   -19.2279   YY=    31.3492   ZY=    49.8894
   XZ=    39.2580   YZ=    65.0760   ZZ=   142.6100
   Eigenvalues:   -15.9971    52.6208   172.1445
      3  C    Isotropic =    71.2948   Anisotropy =   145.5237
   XX=    50.9864   YX=    28.3163   ZX=     7.3733
   XY=    27.5763   YY=    13.7874   ZY=    44.9988
   XZ=     7.0417   YZ=    56.8968   ZZ=   149.1107
   Eigenvalues:   -12.6672    58.2410   168.3106
      4  C    Isotropic =    81.8054   Anisotropy =   136.5420
   XX=    61.1459   YX=    28.3551   ZX=     9.3322
   XY=    24.3987   YY=    29.8077   ZY=    43.3968
   XZ=    12.3917   YZ=    48.8079   ZZ=   154.4628
   Eigenvalues:     5.8051    66.7778   172.8334
      5  C    Isotropic =    81.6242   Anisotropy =   126.5557
   XX=    49.3232   YX=   -27.0477   ZX=    27.7051
   XY=   -23.1142   YY=    48.2196   ZY=    41.0516
   XZ=    25.5912   YZ=    45.6015   ZZ=   147.3297
   Eigenvalues:     6.0354    72.8425   165.9946
      6  C    Isotropic =    43.2187   Anisotropy =   132.8244
   XX=   -29.9580   YX=    13.0665   ZX=    22.4270
   XY=    16.6263   YY=    40.5908   ZY=    26.2934
   XZ=    21.3373   YZ=    28.9771   ZZ=   119.0234
   Eigenvalues:   -34.7639    32.6517   131.7684
      7  N    Isotropic =   123.3346   Anisotropy =   103.8370
   XX=   122.4126   YX=    83.1995   ZX=    37.0505
   XY=    45.5826   YY=   106.8024   ZY=   -17.9540
   XZ=    42.6294   YZ=     0.5487   ZZ=   140.7889
   Eigenvalues:    38.6770   138.7676   192.5593
      8  C    Isotropic =    28.7886   Anisotropy =   111.1789
   XX=    10.6989   YX=   -28.7085   ZX=   -20.1899
   XY=   -21.7037   YY=    10.6438   ZY=   -60.5565
   XZ=   -20.7313   YZ=   -57.3396   ZZ=    65.0232
   Eigenvalues:   -45.5982    29.0562   102.9079
      9  O    Isotropic =   -44.8315   Anisotropy =   525.2988
   XX=  -304.7580   YX=    32.3707   ZX=     1.4039
   XY=    -3.7879   YY=    -7.9579   ZY=  -203.7981
   XZ=   -14.1446   YZ=  -194.7759   ZZ=   178.2215
   Eigenvalues:  -305.4737  -134.3884   305.3677
     10  C    Isotropic =   172.1081   Anisotropy =    28.7043
   XX=   165.4860   YX=     0.4611   ZX=     0.7458
   XY=    -4.2503   YY=   176.0611   ZY=    16.5751
   XZ=     6.2951   YZ=    14.9582   ZZ=   174.7773
   Eigenvalues:   157.7206   167.3594   191.2443
     11  O    Isotropic =   225.8167   Anisotropy =    51.8803
   XX=   257.5678   YX=   -16.3260   ZX=     2.5516
   XY=   -11.5780   YY=   183.6341   ZY=    20.1862
   XZ=     0.0218   YZ=    20.1504   ZZ=   236.2481
   Eigenvalues:   174.5520   242.4945   260.4035
     12  H    Isotropic =    24.5237   Anisotropy =     6.9412
   XX=    27.4469   YX=    -2.3220   ZX=     1.2891
   XY=    -1.7593   YY=    24.2261   ZY=    -1.2592
   XZ=     1.9552   YZ=    -2.3843   ZZ=    21.8981
   Eigenvalues:    20.8616    23.5582    29.1512
     13  H    Isotropic =    24.6984   Anisotropy =     6.0803
   XX=    27.6944   YX=     1.5524   ZX=    -1.4793
   XY=     0.9867   YY=    24.6957   ZY=    -1.0949
   XZ=    -1.9391   YZ=    -1.3890   ZZ=    21.7052
   Eigenvalues:    21.0224    24.3209    28.7520
     14  H    Isotropic =    24.8419   Anisotropy =     5.0298
   XX=    27.6758   YX=     1.0076   ZX=    -1.1457
   XY=     0.5266   YY=    25.0316   ZY=    -1.3155
   XZ=    -1.0711   YZ=    -1.1176   ZZ=    21.8183
   Eigenvalues:    21.3029    25.0276    28.1951
     15  H    Isotropic =    24.9929   Anisotropy =     4.6632
   XX=    27.0608   YX=    -1.6100   ZX=    -0.3650
   XY=    -1.1124   YY=    26.2385   ZY=    -1.2721
   XZ=    -0.1754   YZ=    -0.8878   ZZ=    21.6794
   Eigenvalues:    21.3776    25.4994    28.1017
     16  H    Isotropic =    25.3075   Anisotropy =     7.4243
   XX=    25.1557   YX=     1.6933   ZX=     0.1351
   XY=    -1.1711   YY=    28.5499   ZY=     3.1030
   XZ=    -3.3599   YZ=     4.2048   ZZ=    22.2168
   Eigenvalues:    20.0596    25.6058    30.2570
     17  H    Isotropic =    29.5758   Anisotropy =     6.8730
   XX=    28.2533   YX=     0.5265   ZX=     0.5667
   XY=     0.7825   YY=    33.3181   ZY=    -2.8064
   XZ=     1.8058   YZ=    -2.0122   ZZ=    27.1558
   Eigenvalues:    25.6418    28.9277    34.1578
     18  H    Isotropic =    30.1985   Anisotropy =     8.4479
   XX=    32.0615   YX=    -0.0874   ZX=     2.4909
   XY=     1.7720   YY=    27.9001   ZY=     1.9673
   XZ=     5.3927   YZ=     2.0381   ZZ=    30.6338
   Eigenvalues:    26.4128    28.3522    35.8304
     19  H    Isotropic =    29.7707   Anisotropy =     5.1648
   XX=    32.8884   YX=     1.6769   ZX=    -0.6025
   XY=     0.6299   YY=    27.1983   ZY=     2.6243
   XZ=     0.5446   YZ=     3.1255   ZZ=    29.2253
   Eigenvalues:    25.0455    31.0527    33.2139
     20  H    Isotropic =    27.3324   Anisotropy =    13.7502
   XX=    30.9621   YX=     5.1686   ZX=    -3.4727
   XY=     3.7889   YY=    29.6455   ZY=    -3.7974
   XZ=    -2.9265   YZ=    -4.1176   ZZ=    21.3896
   Eigenvalues:    19.6093    25.8887    36.4992
 End of Minotr F.D. properties file   721 does not exist.
 End of Minotr F.D. properties file   722 does not exist.
 End of Minotr F.D. properties file   788 does not exist.

 **********************************************************************

            Population analysis using the SCF density.

 **********************************************************************

 Orbital symmetries:
       Occupied  (A) (A) (A) (A) (A) (A) (A) (A) (A) (A) (A) (A)
                 (A) (A) (A) (A) (A) (A) (A) (A) (A) (A) (A) (A)
                 (A) (A) (A) (A) (A) (A) (A) (A) (A) (A) (A) (A)
                 (A) (A) (A) (A)
       Virtual   (A) (A) (A) (A) (A) (A) (A) (A) (A) (A) (A) (A)
                 (A) (A) (A) (A) (A) (A) (A) (A) (A) (A) (A) (A)
                 (A) (A) (A) (A) (A) (A) (A) (A) (A) (A) (A) (A)
                 (A) (A) (A) (A) (A) (A) (A) (A) (A) (A) (A) (A)
                 (A) (A) (A) (A) (A) (A) (A) (A) (A) (A) (A) (A)
                 (A) (A) (A) (A) (A) (A) (A) (A) (A) (A) (A) (A)
                 (A) (A) (A) (A) (A) (A) (A) (A) (A) (A) (A) (A)
                 (A) (A) (A) (A) (A) (A) (A) (A) (A) (A) (A) (A)
                 (A) (A) (A) (A) (A) (A) (A) (A) (A) (A) (A) (A)
                 (A) (A) (A) (A) (A) (A) (A) (A) (A) (A) (A) (A)
                 (A) (A) (A) (A) (A) (A) (A) (A) (A) (A) (A) (A)
                 (A) (A) (A) (A) (A) (A) (A) (A) (A) (A) (A) (A)
                 (A) (A) (A) (A) (A) (A) (A) (A) (A) (A) (A) (A)
                 (A) (A) (A) (A) (A) (A) (A) (A) (A) (A) (A) (A)
                 (A) (A)
 The electronic state is 1-A.
 Alpha  occ. eigenvalues --  -19.18200 -19.11481 -14.36654 -10.29448 -10.25575
 Alpha  occ. eigenvalues --  -10.23277 -10.19977 -10.19961 -10.19634 -10.19340
 Alpha  occ. eigenvalues --  -10.18737  -1.06210  -1.03362  -0.93201  -0.84802
 Alpha  occ. eigenvalues --   -0.75788  -0.74417  -0.73248  -0.63855  -0.61706
 Alpha  occ. eigenvalues --   -0.57947  -0.54912  -0.53072  -0.48413  -0.46949
 Alpha  occ. eigenvalues --   -0.45148  -0.44149  -0.42881  -0.41925  -0.41251
 Alpha  occ. eigenvalues --   -0.39909  -0.39765  -0.38429  -0.36755  -0.34570
 Alpha  occ. eigenvalues --   -0.34369  -0.27661  -0.26123  -0.25621  -0.21498
 Alpha virt. eigenvalues --   -0.01246  -0.00449   0.03404   0.08286   0.09225
 Alpha virt. eigenvalues --    0.10986   0.12061   0.14875   0.15558   0.16411
 Alpha virt. eigenvalues --    0.17040   0.18844   0.21408   0.22435   0.23276
 Alpha virt. eigenvalues --    0.24801   0.29488   0.31440   0.32892   0.33981
 Alpha virt. eigenvalues --    0.35060   0.39294   0.47976   0.50362   0.51366
 Alpha virt. eigenvalues --    0.51735   0.53810   0.54726   0.55712   0.56577
 Alpha virt. eigenvalues --    0.58106   0.58863   0.59201   0.60727   0.61299
 Alpha virt. eigenvalues --    0.61851   0.63708   0.64634   0.67120   0.67617
 Alpha virt. eigenvalues --    0.70128   0.73434   0.75148   0.77589   0.79438
 Alpha virt. eigenvalues --    0.80430   0.81718   0.83543   0.84702   0.85431
 Alpha virt. eigenvalues --    0.85908   0.87917   0.88174   0.89578   0.91577
 Alpha virt. eigenvalues --    0.94162   0.94358   0.95429   0.96300   0.98569
 Alpha virt. eigenvalues --    1.01541   1.03117   1.03762   1.08128   1.08588
 Alpha virt. eigenvalues --    1.15053   1.17399   1.18988   1.21877   1.23304
 Alpha virt. eigenvalues --    1.25763   1.31168   1.32378   1.35620   1.36685
 Alpha virt. eigenvalues --    1.39128   1.39516   1.39996   1.40869   1.44422
 Alpha virt. eigenvalues --    1.49991   1.58601   1.58958   1.64238   1.68225
 Alpha virt. eigenvalues --    1.70745   1.72916   1.75847   1.78266   1.78942
 Alpha virt. eigenvalues --    1.81765   1.83632   1.85236   1.86198   1.86451
 Alpha virt. eigenvalues --    1.88566   1.91558   1.92222   1.94370   1.96046
 Alpha virt. eigenvalues --    1.97370   1.99642   2.03839   2.04019   2.05191
 Alpha virt. eigenvalues --    2.06910   2.09932   2.11311   2.12565   2.15004
 Alpha virt. eigenvalues --    2.24892   2.27122   2.27716   2.30241   2.31292
 Alpha virt. eigenvalues --    2.33679   2.35322   2.36909   2.40140   2.40554
 Alpha virt. eigenvalues --    2.42813   2.43181   2.46507   2.46656   2.48711
 Alpha virt. eigenvalues --    2.51452   2.52728   2.54369   2.58132   2.59660
 Alpha virt. eigenvalues --    2.60802   2.62116   2.64428   2.67941   2.68391
 Alpha virt. eigenvalues --    2.71156   2.72949   2.76654   2.79482   2.81022
 Alpha virt. eigenvalues --    2.84681   2.87339   2.90857   2.96025   3.01456
 Alpha virt. eigenvalues --    3.05499   3.09534   3.14997   3.18977   3.24605
 Alpha virt. eigenvalues --    3.26841   3.33414   3.34433   3.43262   3.44003
 Alpha virt. eigenvalues --    3.45503   3.49466   3.52328   3.83621   4.00140
 Alpha virt. eigenvalues --    4.04647   4.08635   4.14839   4.17553   4.29160
 Alpha virt. eigenvalues --    4.36789   4.43599   4.49337   4.62577   4.84799
          Condensed to atoms (all electrons):
               1          2          3          4          5          6
     1  C    4.675268   0.536548   0.542068  -0.029693  -0.025883  -0.034903
     2  C    0.536548   4.876733  -0.050312   0.520279  -0.040872  -0.027355
     3  C    0.542068  -0.050312   4.924066  -0.037756   0.467727  -0.015377
     4  C   -0.029693   0.520279  -0.037756   4.914696  -0.060224   0.535658
     5  C   -0.025883  -0.040872   0.467727  -0.060224   5.028516   0.500610
     6  C   -0.034903  -0.027355  -0.015377   0.535658   0.500610   4.547565
     7  N    0.201035  -0.054649  -0.059863   0.005393   0.005520   0.000361
     8  C   -0.019357  -0.007233   0.001954   0.000026  -0.000012   0.000018
     9  O    0.002360  -0.000038  -0.000084  -0.000000   0.000000  -0.000000
    10  C    0.005281  -0.001460   0.000068  -0.000216  -0.000027   0.000011
    11  O    0.000128   0.003160   0.004833  -0.054395  -0.060972   0.271722
    12  H   -0.042536   0.367054   0.005424  -0.032727   0.000293   0.004402
    13  H   -0.042548   0.005328   0.364113   0.000415  -0.029726   0.003499
    14  H    0.003988  -0.032471   0.000242   0.359542   0.006334  -0.038787
    15  H    0.003483   0.000572  -0.028895   0.004633   0.363893  -0.041218
    16  H   -0.026230   0.003132  -0.005509  -0.000074   0.000004   0.000008
    17  H   -0.000373  -0.001020   0.000012   0.000021   0.000001  -0.000001
    18  H    0.000095   0.000294   0.000007   0.000005  -0.000001  -0.000000
    19  H    0.004422   0.002607   0.000171  -0.000191  -0.000056  -0.000008
    20  H   -0.000043  -0.000161   0.000616   0.005651  -0.005720  -0.033128
               7          8          9         10         11         12
     1  C    0.201035  -0.019357   0.002360   0.005281   0.000128  -0.042536
     2  C   -0.054649  -0.007233  -0.000038  -0.001460   0.003160   0.367054
     3  C   -0.059863   0.001954  -0.000084   0.000068   0.004833   0.005424
     4  C    0.005393   0.000026  -0.000000  -0.000216  -0.054395  -0.032727
     5  C    0.005520  -0.000012   0.000000  -0.000027  -0.060972   0.000293
     6  C    0.000361   0.000018  -0.000000   0.000011   0.271722   0.004402
     7  N    7.103338   0.284281  -0.096446  -0.115350  -0.000000  -0.004783
     8  C    0.284281   4.337021   0.594161   0.346364  -0.000000   0.000988
     9  O   -0.096446   0.594161   8.131168  -0.086800   0.000000  -0.000084
    10  C   -0.115350   0.346364  -0.086800   5.147083   0.000000   0.000549
    11  O   -0.000000  -0.000000   0.000000   0.000000   8.118099  -0.000055
    12  H   -0.004783   0.000988  -0.000084   0.000549  -0.000055   0.594262
    13  H   -0.004812   0.000109  -0.000023  -0.000016  -0.000049  -0.000177
    14  H   -0.000106  -0.000004  -0.000000  -0.000003  -0.001053  -0.006458
    15  H   -0.000112  -0.000000  -0.000000  -0.000000  -0.005936   0.000013
    16  H    0.321673  -0.014775   0.008862   0.008268  -0.000000  -0.000088
    17  H    0.001158  -0.022079   0.000111   0.373788  -0.000000   0.001288
    18  H    0.004254  -0.025653   0.002668   0.368485   0.000000   0.000061
    19  H    0.000186  -0.016502   0.003101   0.352736   0.000000  -0.000435
    20  H   -0.000000  -0.000000  -0.000000   0.000000   0.302245   0.000005
              13         14         15         16         17         18
     1  C   -0.042548   0.003988   0.003483  -0.026230  -0.000373   0.000095
     2  C    0.005328  -0.032471   0.000572   0.003132  -0.001020   0.000294
     3  C    0.364113   0.000242  -0.028895  -0.005509   0.000012   0.000007
     4  C    0.000415   0.359542   0.004633  -0.000074   0.000021   0.000005
     5  C   -0.029726   0.006334   0.363893   0.000004   0.000001  -0.000001
     6  C    0.003499  -0.038787  -0.041218   0.000008  -0.000001  -0.000000
     7  N   -0.004812  -0.000106  -0.000112   0.321673   0.001158   0.004254
     8  C    0.000109  -0.000004  -0.000000  -0.014775  -0.022079  -0.025653
     9  O   -0.000023  -0.000000  -0.000000   0.008862   0.000111   0.002668
    10  C   -0.000016  -0.000003  -0.000000   0.008268   0.373788   0.368485
    11  O   -0.000049  -0.001053  -0.005936  -0.000000  -0.000000   0.000000
    12  H   -0.000177  -0.006458   0.000013  -0.000088   0.001288   0.000061
    13  H    0.593619   0.000015  -0.006080   0.002208   0.000000  -0.000001
    14  H    0.000015   0.599813  -0.000172   0.000002   0.000001  -0.000000
    15  H   -0.006080  -0.000172   0.590956  -0.000005  -0.000000   0.000000
    16  H    0.002208   0.000002  -0.000005   0.420350  -0.000194  -0.000164
    17  H    0.000000   0.000001  -0.000000  -0.000194   0.542267  -0.021951
    18  H   -0.000001  -0.000000   0.000000  -0.000164  -0.021951   0.556382
    19  H    0.000019  -0.000001   0.000000  -0.000193  -0.026623  -0.022855
    20  H   -0.000010  -0.000297   0.004817   0.000000   0.000000   0.000000
              19         20
     1  C    0.004422  -0.000043
     2  C    0.002607  -0.000161
     3  C    0.000171   0.000616
     4  C   -0.000191   0.005651
     5  C   -0.000056  -0.005720
     6  C   -0.000008  -0.033128
     7  N    0.000186  -0.000000
     8  C   -0.016502  -0.000000
     9  O    0.003101  -0.000000
    10  C    0.352736   0.000000
    11  O    0.000000   0.302245
    12  H   -0.000435   0.000005
    13  H    0.000019  -0.000010
    14  H   -0.000001  -0.000297
    15  H    0.000000   0.004817
    16  H   -0.000193   0.000000
    17  H   -0.026623   0.000000
    18  H   -0.022855   0.000000
    19  H    0.567104  -0.000000
    20  H   -0.000000   0.381718
 Mulliken charges:
               1
     1  C    0.246890
     2  C   -0.100134
     3  C   -0.113505
     4  C   -0.131044
     5  C   -0.149407
     6  C    0.326924
     7  N   -0.591076
     8  C    0.540694
     9  O   -0.558955
    10  C   -0.398762
    11  O   -0.577727
    12  H    0.113004
    13  H    0.114117
    14  H    0.109413
    15  H    0.114052
    16  H    0.282725
    17  H    0.153593
    18  H    0.138376
    19  H    0.136519
    20  H    0.344307
 Sum of Mulliken charges =  -0.00000
 Mulliken charges with hydrogens summed into heavy atoms:
               1
     1  C    0.246890
     2  C    0.012869
     3  C    0.000611
     4  C   -0.021631
     5  C   -0.035356
     6  C    0.326924
     7  N   -0.308351
     8  C    0.540694
     9  O   -0.558955
    10  C    0.029725
    11  O   -0.233420
 Electronic spatial extent (au):  <R**2>=           2167.7530
 Charge=             -0.0000 electrons
 Dipole moment (field-independent basis, Debye):
    X=             -5.0407    Y=             -0.9178    Z=              0.9804  Tot=              5.2165
 Quadrupole moment (field-independent basis, Debye-Ang):
   XX=            -77.8094   YY=            -55.4570   ZZ=            -63.6600
   XY=             11.1605   XZ=             -1.2558   YZ=             -1.3815
 Traceless Quadrupole moment (field-independent basis, Debye-Ang):
   XX=            -12.1673   YY=             10.1851   ZZ=              1.9822
   XY=             11.1605   XZ=             -1.2558   YZ=             -1.3815
 Octapole moment (field-independent basis, Debye-Ang**2):
  XXX=           -140.7103  YYY=             -6.2466  ZZZ=              1.1528  XYY=              1.7950
  XXY=            -12.7359  XXZ=             24.9620  XZZ=              3.7110  YZZ=             -0.3883
  YYZ=             -2.7912  XYZ=              7.8205
 Hexadecapole moment (field-independent basis, Debye-Ang**3):
 XXXX=          -2388.4881 YYYY=           -373.6502 ZZZZ=           -147.7495 XXXY=            192.6090
 XXXZ=            -31.4008 YYYX=            -11.1082 YYYZ=             -8.1414 ZZZX=             -7.7042
 ZZZY=              4.5134 XXYY=           -405.5192 XXZZ=           -371.9722 YYZZ=            -89.1132
 XXYZ=            -13.1967 YYXZ=             -8.8849 ZZXY=             -1.9871
 N-N= 5.718151550242D+02 E-N=-2.344580514030D+03  KE= 5.107174913341D+02
 1\1\GINC-JACOL-X399-AORUS-GAMING-7\SP\RB3LYP\6-31G(d,p)\C8H9N1O2\JACOL
 \06-Mar-2021\0\\# B3LYP/6-31G(d,p) scrf=(pcm, solvent=dmso) nmr=giao\\
 paracetamol_DMSO_NMR\\0,1\C,0,6.445812,-7.666874,0.361988\C,0,6.243082
 ,-8.999394,0.746383\C,0,5.368253,-6.941873,-0.161708\C,0,5.001614,-9.6
 05275,0.575122\C,0,4.115985,-7.534145,-0.309932\C,0,3.930238,-8.874661
 ,0.04851\N,0,7.697854,-7.015813,0.542882\C,0,8.956795,-7.396236,0.1510
 38\O,0,9.923675,-6.678922,0.412123\C,0,9.116584,-8.701991,-0.60171\O,0
 ,2.733405,-9.518563,-0.084527\H,0,7.055105,-9.562777,1.192596\H,0,5.51
 2698,-5.906996,-0.457017\H,0,4.844941,-10.638759,0.865768\H,0,3.287807
 ,-6.958202,-0.714263\H,0,7.679158,-6.090567,0.95611\H,0,9.293423,-9.52
 1514,0.102418\H,0,9.998106,-8.611859,-1.237914\H,0,8.244228,-8.956934,
 -1.205711\H,0,2.078149,-8.910348,-0.454657\\Version=ES64L-G16RevA.03\S
 tate=1-A\HF=-515.5078069\RMSD=3.377e-09\Dipole=-1.9961444,-0.1748142,-
 0.4438015\Quadrupole=-3.9319887,2.3012726,1.6307161,-11.2423188,1.4262
 164,-1.1477963\PG=C01 [X(C8H9N1O2)]\\@


 Standing in the middle of the road is very dangerous;
 you get knocked down by the traffic from both sides.
                                -- Margaret Thatcher
 Job cpu time:       0 days  0 hours  2 minutes 40.4 seconds.
 Elapsed time:       0 days  0 hours  0 minutes 44.4 seconds.
 File lengths (MBytes):  RWF=     71 Int=      0 D2E=      0 Chk=      5 Scr=      1
 Normal termination of Gaussian 16 at Sat Mar  6 10:18:17 2021.
